89
	Energy:     118.8393344
C         -2.75351        1.09582       -0.62442
C         -2.87877        2.44122       -1.00428
C         -1.86860        3.36557       -0.71481
C         -0.74516        2.90727       -0.03250
C         -0.62487        1.58150        0.33505
C         -1.61444        0.64733        0.05270
H         -3.54954        0.39382       -0.86022
H         -1.50993       -0.39360        0.34782
H         -3.77105        2.76962       -1.53137
H         -1.96269        4.40699       -1.01262
C          0.58797        1.45206        0.97798
C          1.21046        0.34396        1.54067
C          2.46539        0.53508        2.12843
C          3.06250        1.80490        2.14638
C          1.17179        2.70387        0.99133
N          0.36270        3.59969        0.35810
C          2.41888        2.90852        1.57564
H          0.74296       -0.63711        1.52202
H          2.98436       -0.30955        2.57482
H          4.03894        1.93316        2.60677
H          2.88547        3.88996        1.58798
C          0.38278        4.93572        0.60874
C         -0.59568        5.52357        1.41465
C         -0.58453        6.91277        1.65490
C          1.38821        5.71231        0.04001
C          1.42672        7.07902        0.28948
C          0.45478        7.67845        1.08734
H         -1.38203        4.89428        1.82267
H          2.14621        5.25538       -0.59215
H          2.21805        7.68467       -0.14492
C         -1.67688        7.56693        2.46592
C         -2.39494        6.84251        3.43393
C         -2.02760        8.91341        2.24266
C         -3.07602        9.53111        2.94544
C         -3.43385        7.44580        4.13407
C         -3.77860        8.77034        3.88996
H         -3.98354        6.87525        4.87867
H         -4.59873        9.19835        4.46133
H         -1.49772        9.47420        1.47947
C         -3.41891       10.87657        2.69803
H          0.52727        8.74827        1.26155
H         -2.15416        5.80737        3.65962
N         -2.65983       11.61055        1.85067
N         -4.50369       11.41185        3.30658
C         -3.00449       12.89410        1.60184
C         -4.81980       12.70537        3.06492
N         -4.07857       13.45289        2.21087
N         -5.90843       13.24379        3.68259
N         -2.25673       13.61393        0.71886
C         -6.05009       13.36663        5.03629
C         -6.75447       14.15799        3.12139
C         -7.43325       14.83735        4.11401
C         -6.99463       14.33500        5.31976
C         -2.03719       14.95857        0.82218
C         -1.83084       15.50204       -0.43052
C         -1.91853       14.46831       -1.33630
C         -2.18322       13.32018       -0.61462
C         -5.42047       12.66550        6.06444
C         -5.77775       12.96861        7.38279
C         -6.73992       13.95052        7.66024
C         -7.36177       14.65150        6.62263
C         -7.00042       14.42583        1.77613
C         -7.93423       15.42065        1.46542
C         -8.37005       15.82299        3.82605
C         -8.61175       16.11344        2.47985
H         -4.67718       11.89948        5.86391
H         -5.30589       12.43233        8.20237
H         -7.00648       14.16695        8.69185
H         -8.11066       15.41156        6.83006
H         -6.48476       13.88543        0.98635
H         -8.13848       15.65755        0.42428
H         -8.89655       16.35086        4.61712
H         -9.33504       16.88177        2.21689
C         -1.97619       15.75372        1.96447
C         -1.72648       17.12079        1.79934
C         -1.53082       17.66748        0.52163
C         -1.57596       16.85569       -0.61577
H         -1.41657       17.27046       -1.60782
H         -1.33703       18.73198        0.41556
H         -2.12058       15.33136        2.95580
H         -1.68232       17.76691        2.67256
C         -1.77097       14.45638       -2.71865
C         -1.89477       13.22734       -3.37354
C         -2.15861       12.05569       -2.64953
C         -2.30568       12.08916       -1.25871
H         -1.78040       13.17844       -4.45365
H         -1.55928       15.36738       -3.27245
H         -2.50228       11.17260       -0.71035
H         -2.24580       11.10763       -3.17454
