6
Energy = -2000.022219445 Ha (TZVP) -2000.028570257 Ha (TZVPP)
Ti   -0.2729066    1.3062814    0.0000000 
Ti    0.2726603   -1.3364542    0.0000000 
O    -0.4039970   -2.8663386    0.0000000 
O     0.0206533    0.0215402   -1.3004834 
O     0.0206533    0.0215402    1.3004834 
O     0.3629367    2.8534311    0.0000000
