6
Energy = -1999.610042815 Ha (TZVP) -1999.616163437 (TZVPP)
Ti   -0.7926550    1.0121464    0.0002368 
Ti    0.8426313   -1.1644728    0.0017708 
O     0.0610951   -2.5407726   -0.0008106 
O    -0.0429513    0.0234814   -1.2203786 
O    -0.0455766    0.0206206    1.2219193 
O    -0.0225435    2.6489970   -0.0027377 
