6
Energy = -1999.610111365 Ha (TZVP) -1999.02297530926 Ha (TZVPP)
Ti    1.2813238    0.0257728    0.1794869 
O     0.1511839   -1.0830420   -0.5448170 
O     2.2285056    0.8282517   -1.1344915 
O    -0.0523016    1.0559346    0.6156412 
Ti   -1.4193930   -0.0544668   -0.1484401 
O    -2.1893189   -0.7724504    1.0326205
