9
Energy = -2999.692019337 Ha (TZVP) -2999.701812725 Ha (TZVPP)
Ti   -0.3291426   -0.3481998   -1.3763106 
Ti    1.4973869    1.2117613    0.0398778 
Ti   -0.3048679   -0.4304977    1.4872385 
O    -1.3464046   -0.1652340    2.6581444 
O    -0.7117190   -1.4787323   -0.1243043 
O    -0.3287757    1.0627951    0.0146998 
O     1.5124561    0.1368988   -1.3577693 
O    -1.4579963   -0.2425044   -2.7951489 
O     1.5794698    0.2554350    1.4535727
