3
Energy = -999.9383792999 Ha (TZVP) -999.9466257493 Ha (TZVPP)
Ti    0.0000000    0.0000000   -0.6100618 
O     1.4046115    0.0000000    0.3050263 
O    -1.4046115    0.0000000    0.3050263 
