3
Energy = -999.5381213751 Ha (TZVP) -999.5407515807 Ha (TZVPP)
Ti   -0.0379947   -0.7343992    0.0000000 
O    -1.2134120    0.3671134    0.0000000 
O     1.2514067    0.3672858    0.0000000 
