68
	Energy:      75.4822570
C         -2.51919        0.35999       -1.31030
C         -2.97533        1.68297       -1.20028
C         -2.26580        2.62620       -0.44829
C         -1.09801        2.20746        0.18140
C         -0.65470        0.90411        0.07307
C         -1.34418       -0.04725       -0.66930
H         -3.08585       -0.35695       -1.89949
H         -0.98550       -1.07013       -0.74983
H         -3.89177        1.97909       -1.70454
H         -2.61788        3.65108       -0.35938
C          0.51071        0.81765        0.80363
C          1.37442       -0.24724        1.03117
C          2.49978       -0.00861        1.82772
C          2.73704        1.26330        2.37216
C          0.74074        2.07046        1.33624
N         -0.24712        2.93046        0.96194
C          1.85463        2.32235        2.13134
H          1.18545       -1.22934        0.60549
H          3.19854       -0.81742        2.02675
H          3.61718        1.42853        2.98850
H          2.03601        3.30831        2.55234
C          0.00051        4.24593        0.74211
C         -0.37908        5.17930        1.70303
C         -0.08809        6.54303        1.52196
C          0.65672        4.65128       -0.41691
C          0.93934        5.99880       -0.61185
C          0.58132        6.95189        0.34519
H         -0.89747        4.84054        2.59726
H          0.95622        3.92070       -1.16508
H          1.45756        6.30430       -1.51762
C          0.95972        8.40781        0.10571
H          0.09843        8.97245       -0.25726
H          1.75419        8.48889       -0.63951
H          1.32138        8.87532        1.02432
C         -0.49428        7.52449        2.58492
C          0.00086        7.44079        3.90696
C         -1.38911        8.55783        2.25527
C         -1.76859        9.49221        3.21526
C         -0.40548        8.38140        4.85705
C         -1.28141        9.40642        4.51665
C          1.00153        6.36893        4.31925
H         -0.02629        8.32664        5.87465
H         -1.57479       10.13962        5.26467
H         -1.78795        8.64035        1.24668
N         -2.59269       10.50948        2.85995
C         -3.83475       10.66595        3.39734
C         -2.11939       11.76713        2.63659
C         -3.05606       12.70542        3.02179
C         -4.14301       12.00794        3.50267
C         -4.73525        9.68569        3.80209
C         -5.35686       12.44464        4.01983
C         -6.27164       11.47014        4.43361
C         -5.96382       10.10481        4.32516
H         -4.49501        8.62886        3.71472
H         -6.68890        9.36306        4.65053
H         -5.58894       13.50351        4.10035
H         -7.23201       11.77403        4.84273
C         -0.89144       12.15022        2.10570
C         -2.82128       14.07007        2.90169
C         -1.59017       14.47041        2.37068
C         -0.63534       13.51987        1.97670
H          0.31530       13.85107        1.56631
H         -0.15358       11.41214        1.80070
H         -1.37058       15.52970        2.26242
H         -3.56453       14.80087        3.20981
H          1.74973        6.21004        3.53942
H          0.49150        5.42266        4.51117
H          1.53152        6.65686        5.22993
