35
	Energy:      34.7631867
C         -1.89755       -0.83729       -0.46854
C         -2.35953        0.32818       -1.10002
C         -1.54314        1.46023       -1.20242
C         -0.26504        1.38952       -0.65713
C          0.18590        0.24040       -0.03832
C         -0.60888       -0.89427        0.07349
H         -2.54814       -1.70566       -0.40002
H         -0.24489       -1.79332        0.56407
H         -3.36378        0.35222       -1.51564
H         -1.89774        2.36363       -1.69265
C          1.47114        0.49621        0.38858
C          2.38704       -0.29841        1.06779
C          3.63331        0.26271        1.36723
C          3.93598        1.58068        0.99064
C          1.76403        1.79361        0.01745
N          0.70353        2.34734       -0.63396
C          2.99938        2.36445        0.30731
H          2.14598       -1.31815        1.35665
H          4.37563       -0.32897        1.89722
H          4.91032        1.99822        1.23175
H          3.23224        3.38485        0.01282
C          0.41329        3.66948       -0.54517
C         -0.16789        4.18741        0.61303
C         -0.45882        5.54801        0.69178
C          0.70601        4.50754       -1.61965
C          0.41450        5.86782       -1.53619
C         -0.17124        6.39358       -0.38212
H         -0.39443        3.53556        1.45381
H         -0.91086        5.94771        1.59637
H          1.16176        4.10471       -2.52133
H          0.64715        6.51764       -2.37643
C         -0.48518        7.87638       -0.29036
H         -1.38580        8.04582        0.30430
H         -0.65070        8.30266       -1.28251
H          0.34367        8.41012        0.17979
